Title Card Required                                                     
SP        UB3LYP                                                      6-31G(d,p)          
Number of atoms                            I                3
Info1-9                                    I   N=           9
          11          10           0           0           0         110
           1          18        -502
Full Title                                 C   N=           2
Title Card Required     
Route                                      C   N=           3
# ub3lyp/6-31g(d,p) guess=mix       
Charge                                     I                0
Multiplicity                               I                1
Number of electrons                        I                8
Number of alpha electrons                  I                4
Number of beta electrons                   I                4
Number of basis functions                  I               25
Number of independent functions            I               25
Number of point charges in /Mol/           I                0
Number of translation vectors              I                0
Atomic numbers                             I   N=           3
           6           1           1
Nuclear charges                            R   N=           3
  6.00000000E+00  1.00000000E+00  1.00000000E+00
Current cartesian coordinates              R   N=           9
  0.00000000E+00  0.00000000E+00  2.85906586E-01  5.54667824E-32  1.73430371E+00
 -8.57719759E-01 -2.12390949E-16 -1.73430371E+00 -8.57719759E-01
Number of symbols in /Mol/                 I                0
Force Field                                I                0
Atom Types                                 C   N=           3
                                    
Int Atom Types                             I   N=           3
           0           0           0
MM charges                                 R   N=           3
  0.00000000E+00  0.00000000E+00  0.00000000E+00
Integer atomic weights                     I   N=           3
          12           1           1
Real atomic weights                        R   N=           3
  1.20000000E+01  1.00782504E+00  1.00782504E+00
Atom fragment info                         I   N=           3
           0           0           0
Atom residue num                           I   N=           3
           0           0           0
Nuclear spins                              I   N=           3
           0           1           1
Nuclear ZEff                               R   N=           3
 -3.60000000E+00 -1.00000000E+00 -1.00000000E+00
Nuclear ZNuc                               R   N=           3
  6.00000000E+00  1.00000000E+00  1.00000000E+00
Nuclear QMom                               R   N=           3
  0.00000000E+00  0.00000000E+00  0.00000000E+00
Nuclear GFac                               R   N=           3
  0.00000000E+00  2.79284600E+00  2.79284600E+00
MicOpt                                     I   N=           3
          -1          -1          -1
Number of residues                         I                0
Number of secondary structures             I                0
SymInf integers                            I   N=          26
           2           4           1           1           1          -1
          -1           1          -1           1           1           1
          -1           1           0           0           0           0
           0           0           0           0           0           0
           0           0
RotTr to input orientation                 R   N=          12
 -1.00000000E+00  3.06161700E-16 -6.12323400E-17 -3.06161700E-16 -1.00000000E+00
  6.12323400E-17 -6.12323400E-17  6.12323400E-17  1.00000000E+00  0.00000000E+00
  0.00000000E+00 -4.72431531E-07
Number of contracted shells                I               10
Number of primitive shells                 I               21
Pure/Cartesian d shells                    I                1
Pure/Cartesian f shells                    I                0
Highest angular momentum                   I                2
Largest degree of contraction              I                6
Shell types                                I   N=          10
           0          -1          -1           2           0           0
           1           0           0           1
Number of primitives per shell             I   N=          10
           6           3           1           1           3           1
           1           3           1           1
Shell to atom map                          I   N=          10
           1           1           1           1           2           2
           2           3           3           3
Primitive exponents                        R   N=          21
  3.04752488E+03  4.57369518E+02  1.03948685E+02  2.92101553E+01  9.28666296E+00
  3.16392696E+00  7.86827235E+00  1.88128854E+00  5.44249258E-01  1.68714478E-01
  8.00000000E-01  1.87311370E+01  2.82539436E+00  6.40121692E-01  1.61277759E-01
  1.10000000E+00  1.87311370E+01  2.82539436E+00  6.40121692E-01  1.61277759E-01
  1.10000000E+00
Contraction coefficients                   R   N=          21
  1.83473713E-03  1.40373228E-02  6.88426223E-02  2.32184443E-01  4.67941348E-01
  3.62311985E-01 -1.19332420E-01 -1.60854152E-01  1.14345644E+00  1.00000000E+00
  1.00000000E+00  3.34946043E-02  2.34726953E-01  8.13757326E-01  1.00000000E+00
  1.00000000E+00  3.34946043E-02  2.34726953E-01  8.13757326E-01  1.00000000E+00
  1.00000000E+00
P(S=P) Contraction coefficients            R   N=          21
  0.00000000E+00  0.00000000E+00  0.00000000E+00  0.00000000E+00  0.00000000E+00
  0.00000000E+00  6.89990666E-02  3.16423961E-01  7.44308291E-01  1.00000000E+00
  0.00000000E+00  0.00000000E+00  0.00000000E+00  0.00000000E+00  0.00000000E+00
  0.00000000E+00  0.00000000E+00  0.00000000E+00  0.00000000E+00  0.00000000E+00
  0.00000000E+00
Coordinates of each shell                  R   N=          30
  0.00000000E+00  0.00000000E+00  2.85906586E-01  0.00000000E+00  0.00000000E+00
  2.85906586E-01  0.00000000E+00  0.00000000E+00  2.85906586E-01  0.00000000E+00
  0.00000000E+00  2.85906586E-01  0.00000000E+00  1.73430371E+00 -8.57719759E-01
  0.00000000E+00  1.73430371E+00 -8.57719759E-01  0.00000000E+00  1.73430371E+00
 -8.57719759E-01 -2.12390949E-16 -1.73430371E+00 -8.57719759E-01 -2.12390949E-16
 -1.73430371E+00 -8.57719759E-01 -2.12390949E-16 -1.73430371E+00 -8.57719759E-01
Num ILSW                                   I              100
ILSW                                       I   N=         100
           1           1           0           0           2           0
           0           0           0           0         402          -1
           5           0           0           0           0           0
           0           0           1           0           0           0
           1           0           0           0           0           0
           0           0      100000           0          -1           0
           0           0           0           0           0           0
           0           0           0           1           0           0
           0 -2000000000           1           0           0           0
           0           1           4          52           0           0
           0           0           5           0           0           0
           0           0           0           0           0           1
           0           0           0           0           0           0
           0           0           0           0           0           0
           0           0           0           0           0           0
           0           0           0           0           0           0
           0           0           0           0
Num RLSW                                   I               52
RLSW                                       R   N=          52
  8.00000000E-01  7.20000000E-01  1.00000000E+00  8.10000000E-01  2.00000000E-01
  0.00000000E+00  0.00000000E+00  1.00000000E+00  0.00000000E+00  0.00000000E+00
  0.00000000E+00  0.00000000E+00  1.00000000E+00  0.00000000E+00  0.00000000E+00
  0.00000000E+00  0.00000000E+00  1.00000000E+00  0.00000000E+00  0.00000000E+00
  0.00000000E+00  0.00000000E+00  1.00000000E+00  0.00000000E+00  0.00000000E+00
  0.00000000E+00  0.00000000E+00  1.00000000E+00  0.00000000E+00  0.00000000E+00
  0.00000000E+00  0.00000000E+00  1.00000000E+00  0.00000000E+00  0.00000000E+00
  0.00000000E+00  0.00000000E+00  0.00000000E+00  1.00000000E+00  1.00000000E+00
  0.00000000E+00  1.00000000E+00  0.00000000E+00  0.00000000E+00  0.00000000E+00
  0.00000000E+00  0.00000000E+00  0.00000000E+00  0.00000000E+00  0.00000000E+00
  0.00000000E+00  0.00000000E+00
MxBond                                     I                2
NBond                                      I   N=           3
           2           1           1
IBond                                      I   N=           6
           2           3           1           0           1           0
RBond                                      R   N=           6
  1.00000000E+00  1.00000000E+00  1.00000000E+00  0.00000000E+00  1.00000000E+00
  0.00000000E+00
Virial Ratio                               R      2.008696579530110E+00
SCF Energy                                 R     -3.914348930745900E+01
Total Energy                               R     -3.914348930745900E+01
S**2                                       R      7.354024949640969E-01
S**2 after annihilation                    R      4.990800779984934E-03
RMS Density                                R      3.422544549415548E-09
Job Status                                 I                1
Nuclear derivative order                   I                0
External E-field                           R   N=          35
  0.00000000E+00  0.00000000E+00  0.00000000E+00  0.00000000E+00  0.00000000E+00
  0.00000000E+00  0.00000000E+00  0.00000000E+00  0.00000000E+00  0.00000000E+00
  0.00000000E+00  0.00000000E+00  0.00000000E+00  0.00000000E+00  0.00000000E+00
  0.00000000E+00  0.00000000E+00  0.00000000E+00  0.00000000E+00  0.00000000E+00
  0.00000000E+00  0.00000000E+00  0.00000000E+00  0.00000000E+00  0.00000000E+00
  0.00000000E+00  0.00000000E+00  0.00000000E+00  0.00000000E+00  0.00000000E+00
  0.00000000E+00  0.00000000E+00  0.00000000E+00  0.00000000E+00  0.00000000E+00
IOpCl                                      I                1
IROHF                                      I                0
Alpha Orbital Energies                     R   N=          25
 -1.02287552E+01 -6.50144010E-01 -4.16593033E-01 -2.54668621E-01 -8.83221990E-02
  1.23893068E-01  1.75545366E-01  5.37269873E-01  5.47046483E-01  5.88977390E-01
  6.89816729E-01  8.63894643E-01  9.05033292E-01  1.44779032E+00  1.50869157E+00
  1.58932192E+00  1.94972464E+00  1.98056434E+00  2.23717834E+00  2.40548775E+00
  2.50157221E+00  2.71708768E+00  3.20009150E+00  3.37089850E+00  4.12786187E+00
Beta Orbital Energies                      R   N=          25
 -1.02287552E+01 -6.50144010E-01 -4.16593033E-01 -2.54668621E-01 -8.83221990E-02
  1.23893068E-01  1.75545366E-01  5.37269873E-01  5.47046483E-01  5.88977390E-01
  6.89816729E-01  8.63894643E-01  9.05033292E-01  1.44779032E+00  1.50869157E+00
  1.58932192E+00  1.94972464E+00  1.98056434E+00  2.23717834E+00  2.40548775E+00
  2.50157221E+00  2.71708768E+00  3.20009150E+00  3.37089850E+00  4.12786187E+00
Alpha MO coefficients                      R   N=         625
  9.92859697E-01  4.74656005E-02  4.21454216E-04  2.55597383E-16 -1.60047251E-03
 -9.14658702E-03 -1.21386644E-04  1.07567181E-16  1.83804754E-03 -9.58566881E-03
 -8.83198469E-03 -9.26750017E-03  4.19887078E-17  6.00901699E-04 -2.38453995E-16
 -6.06253867E-04  2.37033183E-03  2.92594572E-05  2.61629184E-04 -2.66317584E-04
 -6.06253867E-04  2.37033183E-03  2.92594572E-05 -2.61629184E-04 -2.66317584E-04
 -1.96651665E-01  4.00099665E-01  2.66522610E-02 -3.74949635E-17 -1.29922188E-01
  3.72523766E-01  9.93035664E-03  2.47349533E-16 -4.21987854E-02 -1.79337020E-02
 -1.19617768E-03 -7.88154746E-03  1.95728143E-16  1.39941557E-02  6.65007714E-17
  1.84623956E-01  7.58939710E-02 -1.35037323E-03 -1.32241444E-02  6.58729434E-03
  1.84623956E-01  7.58939710E-02 -1.35037323E-03  1.32241444E-02  6.58729434E-03
 -1.43019036E-16  1.04813879E-16  8.55050998E-16  4.51823565E-01 -7.83125697E-17
 -2.39140589E-17 -4.68934345E-16  1.46467360E-01  1.07961750E-15 -3.17200413E-17
 -2.96126609E-16  7.59200174E-17  5.31637219E-03  6.75407797E-17 -3.24999133E-02
  2.52230031E-01  2.35917895E-01 -2.04961299E-03 -3.36657837E-03  7.15011787E-03
 -2.52230031E-01 -2.35917895E-01  2.04961299E-03 -3.36657837E-03 -7.15011787E-03
 -8.31587378E-02  1.66779482E-01  3.09162631E-01 -2.00061186E-16  4.55027156E-01
  3.96219065E-01  2.40470398E-01 -7.09168486E-16  3.17654421E-01  1.10623487E-02
 -1.22514642E-02 -2.82139066E-02  7.28579688E-17  5.31551065E-03  9.62253027E-17
 -1.00773270E-01 -1.27572910E-01  7.91190431E-03  3.89018521E-03  9.66312240E-03
 -1.00773270E-01 -1.27572910E-01  7.91190431E-03 -3.89018521E-03  9.66312240E-03
  5.29787131E-02 -8.65731843E-02  4.72168397E-01 -4.34179331E-17 -2.13492208E-01
 -2.68620121E-01  5.02514378E-01  8.85200349E-16 -2.11341431E-01  1.16965757E-02
 -3.12964530E-04  8.19476747E-03 -9.32344774E-17 -2.49842925E-02 -4.05955542E-16
  4.98431330E-02  7.71272092E-02  1.57236436E-02 -2.57480507E-03 -6.33935701E-03
  4.98431330E-02  7.71272092E-02  1.57236436E-02  2.57480507E-03 -6.33935701E-03
 -1.22230668E-01  2.01473183E-01  4.96463928E-04  6.36485243E-16 -2.71315822E-01
  1.79437931E+00  4.34014390E-03  3.16511712E-15 -7.89219107E-01 -9.52890423E-03
 -1.98005958E-02  9.42177748E-04  2.32006074E-16  6.72144528E-03  4.16481341E-16
 -6.50147855E-02 -1.39347408E+00  2.24981257E-04 -9.36807591E-03 -1.25506968E-03
 -6.50147855E-02 -1.39347408E+00  2.24981257E-04  9.36807591E-03 -1.25506968E-03
 -2.92421523E-16 -7.00794920E-16  1.58468220E-16 -4.52427870E-01 -1.37088481E-15
  6.38939138E-15 -6.98296209E-17 -1.25971655E+00 -2.40642920E-15 -4.67337336E-19
  1.52900162E-16 -3.66646856E-16 -9.88542040E-03 -2.26591678E-16 -4.12741645E-03
  7.20080442E-02  1.49766143E+00 -8.67568502E-04 -7.58694840E-04 -1.18698939E-02
 -7.20080442E-02 -1.49766143E+00  8.67568502E-04 -7.58694840E-04  1.18698939E-02
  2.50079347E-02 -1.62428922E-01 -7.74039428E-01  4.25142801E-15 -6.56087823E-01
 -1.10496872E-01  8.04579803E-01 -9.61100344E-15  8.76876476E-01 -3.62186552E-02
  2.76488010E-04 -9.03890716E-03 -4.10785673E-17 -2.50516490E-03 -6.96217110E-16
  9.87589725E-02  1.57670441E-01 -7.62004812E-03 -1.33968887E-02  1.04347909E-02
  9.87589725E-02  1.57670441E-01 -7.62004812E-03  1.33968887E-02  1.04347909E-02
  2.49955346E-16 -9.58637037E-16 -4.77412527E-15 -7.05317028E-01 -3.00702726E-15
 -1.49791222E-15  4.96762735E-15  1.63123096E+00  4.72325402E-15 -9.38234332E-17
  1.58667129E-16  1.93006334E-16  3.35198064E-03 -1.21945983E-17  8.55269284E-02
 -4.01884692E-01 -3.73094940E-01  1.07496584E-03  4.20050811E-02 -1.37037841E-03
  4.01884692E-01  3.73094940E-01 -1.07496584E-03  4.20050811E-02  1.37037841E-03
  3.70066304E-02 -1.85824394E-02  7.39730687E-01 -6.87032081E-16 -7.15446202E-01
 -4.63100815E-01 -7.19667290E-01  9.47589272E-16  9.97511476E-01 -2.77729973E-02
  1.52783525E-02 -1.43727335E-02  2.33408718E-16 -1.77755326E-02  7.26593694E-17
  1.75570414E-01  2.36155827E-01  1.00484921E-02 -1.35275888E-02  1.57298966E-02
  1.75570414E-01  2.36155827E-01  1.00484921E-02  1.35275888E-02  1.57298966E-02
 -4.44407161E-02 -9.06856558E-01  8.79152692E-02 -2.92182616E-15 -2.49867493E-01
  1.76511950E+00 -8.30900032E-02  8.21204525E-15 -3.06435681E-01  3.96663605E-02
 -2.69951081E-01 -6.15093501E-02 -1.01628633E-16  7.86866822E-04 -1.17882983E-15
 -6.36612123E-01 -9.26065978E-02  1.09963347E-03 -5.19763958E-02 -2.68906082E-02
 -6.36612123E-01 -9.26065978E-02  1.09963347E-03  5.19763958E-02 -2.68906082E-02
 -1.39989941E-16  3.79454389E-15  7.73925235E-16  7.73722464E-01 -3.09372328E-15
 -1.21048533E-14 -3.83754811E-16 -1.25860009E+00  4.01257997E-15  8.50347678E-16
 -5.46914814E-16  4.68267154E-16  2.02000710E-02  6.91713201E-16  2.30676572E-01
 -7.16103272E-01  1.44489396E+00  4.65840229E-03 -5.21970446E-02  7.37208960E-02
  7.16103272E-01 -1.44489396E+00 -4.65840229E-03 -5.21970446E-02 -7.37208960E-02
  2.56660432E-02 -1.53708945E+00  2.67818398E-02  4.84205466E-15  3.55419610E-01
  3.15433408E+00 -2.16473203E-02 -7.83085333E-15 -8.68540507E-01 -1.37979956E-01
  5.69327754E-02 -6.60930869E-02 -1.05566599E-15 -1.74137094E-02  1.11047485E-15
  5.12098657E-01 -1.49630368E+00  3.38033722E-04  7.71161772E-02 -4.09664339E-02
  5.12098657E-01 -1.49630368E+00  3.38033722E-04 -7.71161772E-02 -4.09664339E-02
 -3.41820979E-17 -5.27115172E-15 -2.04507391E-16 -1.74523354E-02  8.22770791E-16
  1.06101495E-14  7.15627125E-16  2.10632254E-04 -3.22584712E-15 -4.51661504E-17
  1.35554653E-15 -2.38916606E-15  7.24176637E-01 -2.65093251E-15  1.41745171E-02
  2.94605254E-02 -2.01624463E-02  3.45511622E-01  6.08750844E-03 -4.14738179E-03
 -2.94605254E-02  2.01624463E-02 -3.45511622E-01  6.08750844E-03  4.14738179E-03
  1.55983417E-02  1.39803797E-01  1.46718078E-02  2.15893407E-16  4.18800843E-02
 -4.20639374E-01  8.92619905E-03  9.07125802E-16  2.66457864E-01 -3.24603323E-01
 -4.04830197E-01  7.78469578E-01  2.70558535E-15  1.10713306E-01 -4.96419925E-16
  1.49611613E-01  1.12700682E-01 -3.14506852E-02 -1.40998410E-01 -2.73916373E-01
  1.49611613E-01  1.12700682E-01 -3.14506852E-02  1.40998410E-01 -2.73916373E-01
  7.13951248E-03 -4.49083132E-02  6.32445621E-02 -2.16206011E-15 -2.11826226E-02
  2.24264542E-02  9.68008998E-02 -1.81579350E-16 -7.08142318E-03  1.00641402E-01
  1.54826426E-02 -1.03642787E-01  2.48626490E-15  8.27903337E-01  3.09667016E-15
  1.83052782E-02 -1.67688623E-02 -2.83030998E-01  2.53914501E-02  2.92290399E-02
  1.83052782E-02 -1.67688623E-02 -2.83030998E-01 -2.53914501E-02  2.92290399E-02
  3.65094543E-02  2.59660581E-01 -2.16389388E-02 -4.45653732E-16 -8.23354545E-02
 -7.47902183E-01 -5.02547074E-03  4.07906494E-15  3.84035231E-01  9.53782118E-01
 -5.52701061E-01 -1.69643568E-01  8.81603323E-16 -4.06601177E-02 -2.06237576E-15
  3.98753296E-01  1.00851456E-01  2.60333656E-02  1.10875034E-01 -2.03086046E-01
  3.98753296E-01  1.00851456E-01  2.60333656E-02 -1.10875034E-01 -2.03086046E-01
  3.25164426E-16  1.03360077E-15 -1.19416937E-15  1.08501505E-01 -1.29397592E-15
 -5.42677489E-15 -7.49785674E-17 -5.37867315E-01  4.08772186E-15  9.51162978E-15
 -5.44861237E-15 -2.65277157E-15 -4.08069615E-03  5.04165529E-16  5.40823110E-01
  4.01032970E-01  9.51393710E-03 -1.33824262E-02  4.51059973E-01  2.81964191E-01
 -4.01032970E-01 -9.51393710E-03  1.33824262E-02  4.51059973E-01 -2.81964191E-01
 -2.65646836E-16 -4.30416048E-16 -2.69459102E-16  1.80506960E-01 -1.02163479E-16
  3.86636389E-15  5.02620550E-17  8.73900922E-02 -1.85935637E-15 -5.00012233E-15
  2.38559711E-15  1.50342843E-16  2.17265575E-02 -1.44186059E-15  6.00284443E-01
  2.43686716E-01 -2.66486464E-01 -3.20024867E-02 -9.69290153E-02 -5.91993421E-01
 -2.43686716E-01  2.66486464E-01  3.20024867E-02 -9.69290153E-02  5.91993421E-01
  1.46068339E-03 -2.32218579E-02 -8.51389172E-02 -3.60599934E-15 -3.85673226E-03
  2.85343290E-02 -2.41556627E-01 -1.18719245E-15 -1.43281596E-02 -1.05720378E-02
  1.35295166E-03  1.41528628E-02 -2.16623846E-14  5.95383185E-01  4.00807538E-15
 -1.97994024E-03 -1.07740612E-02  7.02528096E-01  1.03522867E-02  1.58695803E-02
 -1.97994024E-03 -1.07740612E-02  7.02528096E-01 -1.03522867E-02  1.58695803E-02
  4.32160721E-16 -2.73562768E-15 -2.64284888E-15 -1.98247753E-02  1.93279491E-15
 -2.61105347E-15 -7.17583390E-15 -4.30816291E-04 -2.26731575E-16  1.58902678E-15
 -4.67168159E-16  5.85260022E-16  7.74478310E-01  1.66327039E-14 -2.61722161E-02
 -8.57890064E-03  1.07484949E-02 -6.65425372E-01 -4.70093903E-03  2.30858597E-02
  8.57890064E-03 -1.07484949E-02  6.65425372E-01 -4.70093903E-03 -2.30858597E-02
 -3.73972170E-03 -1.14811541E-01  4.23504499E-03  7.58497165E-16 -1.34807610E-01
  4.09119953E-01  3.90605543E-03 -1.57286576E-15 -3.48696849E-01 -6.07248880E-02
 -4.97165049E-01  7.33170742E-01  3.12578567E-16 -1.82656932E-02  3.68306669E-16
 -2.24385316E-02 -2.47474780E-01 -1.30530055E-02  5.24141158E-01  5.07024057E-01
 -2.24385316E-02 -2.47474780E-01 -1.30530055E-02 -5.24141158E-01  5.07024057E-01
 -1.44194592E-01  8.62123087E-01  4.09174870E-03  7.55168191E-15 -5.25402279E-01
  1.09605683E+00 -7.83825561E-04  5.11249831E-15 -3.18222539E-01 -8.26114138E-01
  5.45482153E-01 -3.22819124E-01  2.90430734E-15  5.57514561E-03 -1.03271714E-14
 -4.65968303E-01 -5.12127360E-01 -5.40071036E-04  7.19353045E-01 -5.73306012E-01
 -4.65968303E-01 -5.12127360E-01 -5.40071036E-04 -7.19353045E-01 -5.73306012E-01
 -1.80480776E-15  9.71867943E-15 -7.61904764E-16 -8.92768244E-01 -4.52269450E-15
  1.22956956E-14  1.68521612E-15 -5.73974007E-01 -3.95070153E-15 -1.10792420E-14
  3.24313047E-15 -2.89844830E-15 -4.89920788E-03 -6.40162260E-15  1.15214696E+00
  6.46043974E-01  4.65425213E-01  2.51555354E-03 -8.37461545E-01  5.10979899E-01
 -6.46043974E-01 -4.65425213E-01 -2.51555354E-03 -8.37461545E-01 -5.10979899E-01
 -4.36827970E-01  3.01145512E+00 -3.70812421E-03  8.19419573E-16  2.94227631E-01
  1.16375122E+00  2.37931751E-03  1.63513077E-16 -1.49325197E-01 -1.62765231E+00
 -2.18179503E+00 -1.82390991E+00 -1.02869804E-17  7.83815582E-04 -1.05846050E-15
  3.60489218E-01 -2.89672600E-01  4.01366914E-04 -2.94367600E-01  2.53870151E-01
  3.60489218E-01 -2.89672600E-01  4.01366914E-04  2.94367600E-01  2.53870151E-01
Beta MO coefficients                       R   N=         625
  9.92859697E-01  4.74656005E-02 -4.21454216E-04 -6.23999076E-16 -1.60047251E-03
 -9.14658702E-03  1.21386644E-04 -4.27846825E-16  1.83804754E-03 -9.58566881E-03
 -8.83198469E-03 -9.26750017E-03 -2.91993848E-17 -6.00901699E-04  8.21160176E-16
 -6.06253867E-04  2.37033183E-03 -2.92594572E-05  2.61629184E-04 -2.66317584E-04
 -6.06253867E-04  2.37033183E-03 -2.92594572E-05 -2.61629184E-04 -2.66317584E-04
 -1.96651665E-01  4.00099665E-01 -2.66522610E-02 -1.33204670E-16 -1.29922188E-01
  3.72523766E-01 -9.93035664E-03  1.11365926E-15 -4.21987854E-02 -1.79337020E-02
 -1.19617768E-03 -7.88154746E-03  4.29056093E-17 -1.39941557E-02 -2.54622991E-16
  1.84623956E-01  7.58939710E-02  1.35037323E-03 -1.32241444E-02  6.58729434E-03
  1.84623956E-01  7.58939710E-02  1.35037323E-03  1.32241444E-02  6.58729434E-03
  5.18841718E-17  4.61814785E-17  1.90505917E-16  4.51823565E-01  9.11757185E-16
 -7.61223594E-16 -6.96972604E-16  1.46467360E-01  3.31294099E-16 -5.28428060E-16
  2.51313412E-16 -5.83266645E-17 -5.31637219E-03 -1.10005655E-16 -3.24999133E-02
  2.52230031E-01  2.35917895E-01  2.04961299E-03 -3.36657837E-03  7.15011787E-03
 -2.52230031E-01 -2.35917895E-01 -2.04961299E-03 -3.36657837E-03 -7.15011787E-03
 -8.31587378E-02  1.66779482E-01 -3.09162631E-01  1.57714494E-16  4.55027156E-01
  3.96219065E-01 -2.40470398E-01  5.25784227E-16  3.17654421E-01  1.10623487E-02
 -1.22514642E-02 -2.82139066E-02  9.83664192E-17 -5.31551065E-03 -3.79087712E-16
 -1.00773270E-01 -1.27572910E-01 -7.91190431E-03  3.89018521E-03  9.66312240E-03
 -1.00773270E-01 -1.27572910E-01 -7.91190431E-03 -3.89018521E-03  9.66312240E-03
 -5.29787131E-02  8.65731843E-02  4.72168397E-01  3.84694300E-16  2.13492208E-01
  2.68620121E-01  5.02514378E-01  2.97199822E-16  2.11341431E-01 -1.16965757E-02
  3.12964530E-04 -8.19476747E-03 -2.43510273E-16 -2.49842925E-02 -2.63322739E-16
 -4.98431330E-02 -7.71272092E-02  1.57236436E-02  2.57480507E-03  6.33935701E-03
 -4.98431330E-02 -7.71272092E-02  1.57236436E-02 -2.57480507E-03  6.33935701E-03
 -1.22230668E-01  2.01473183E-01 -4.96463928E-04  6.50202347E-15 -2.71315822E-01
  1.79437931E+00 -4.34014390E-03  2.85236536E-14 -7.89219107E-01 -9.52890423E-03
 -1.98005958E-02  9.42177748E-04 -4.91733273E-16 -6.72144528E-03  6.03332097E-17
 -6.50147855E-02 -1.39347408E+00 -2.24981257E-04 -9.36807591E-03 -1.25506968E-03
 -6.50147855E-02 -1.39347408E+00 -2.24981257E-04  9.36807591E-03 -1.25506968E-03
 -2.40765722E-15  7.63955438E-15  2.54020161E-16 -4.52427870E-01 -5.02047276E-15
  2.68842847E-14 -2.60733636E-16 -1.25971655E+00 -1.27256325E-14 -2.93513880E-16
 -1.00632432E-15  1.06930777E-16  9.88542040E-03 -1.52572365E-16 -4.12741645E-03
  7.20080442E-02  1.49766143E+00  8.67568502E-04 -7.58694840E-04 -1.18698939E-02
 -7.20080442E-02 -1.49766143E+00 -8.67568502E-04 -7.58694840E-04  1.18698939E-02
  2.50079347E-02 -1.62428922E-01  7.74039428E-01  6.10298560E-15 -6.56087823E-01
 -1.10496872E-01 -8.04579803E-01 -1.35722759E-14  8.76876476E-01 -3.62186552E-02
  2.76488010E-04 -9.03890716E-03  1.49584047E-17  2.50516490E-03  1.27065369E-16
  9.87589725E-02  1.57670441E-01  7.62004812E-03 -1.33968887E-02  1.04347909E-02
  9.87589725E-02  1.57670441E-01  7.62004812E-03  1.33968887E-02  1.04347909E-02
  5.59902790E-16 -6.02585755E-15  4.61134970E-15 -7.05317028E-01 -4.88566063E-15
  1.34277354E-15 -4.88479506E-15  1.63123096E+00  7.82301363E-15 -3.79363400E-16
  9.56919177E-17 -2.63567192E-16 -3.35198064E-03  7.07866457E-17  8.55269284E-02
 -4.01884692E-01 -3.73094940E-01 -1.07496584E-03  4.20050811E-02 -1.37037841E-03
  4.01884692E-01  3.73094940E-01  1.07496584E-03  4.20050811E-02  1.37037841E-03
  3.70066304E-02 -1.85824394E-02 -7.39730687E-01  1.92236019E-15 -7.15446202E-01
 -4.63100815E-01  7.19667290E-01 -3.58644895E-15  9.97511476E-01 -2.77729973E-02
  1.52783525E-02 -1.43727335E-02  5.63770272E-16  1.77755326E-02  5.43145492E-16
  1.75570414E-01  2.36155827E-01 -1.00484921E-02 -1.35275888E-02  1.57298966E-02
  1.75570414E-01  2.36155827E-01 -1.00484921E-02  1.35275888E-02  1.57298966E-02
 -4.44407161E-02 -9.06856558E-01 -8.79152692E-02 -5.26749408E-15 -2.49867493E-01
  1.76511950E+00  8.30900032E-02  5.12185859E-15 -3.06435681E-01  3.96663605E-02
 -2.69951081E-01 -6.15093501E-02  3.65285963E-16 -7.86866822E-04 -1.46290447E-15
 -6.36612123E-01 -9.26065978E-02 -1.09963347E-03 -5.19763958E-02 -2.68906082E-02
 -6.36612123E-01 -9.26065978E-02 -1.09963347E-03  5.19763958E-02 -2.68906082E-02
 -9.95574664E-16  1.60673984E-14 -4.35414301E-16  7.73722464E-01 -5.20602855E-15
 -3.05582193E-14  6.82276950E-16 -1.25860009E+00  7.30109030E-15  2.61628921E-15
 -4.12174336E-15  8.76858397E-16 -2.02000710E-02 -1.00393879E-15  2.30676572E-01
 -7.16103272E-01  1.44489396E+00 -4.65840229E-03 -5.21970446E-02  7.37208960E-02
  7.16103272E-01 -1.44489396E+00  4.65840229E-03 -5.21970446E-02 -7.37208960E-02
  2.56660432E-02 -1.53708945E+00 -2.67818398E-02  1.14951724E-14  3.55419610E-01
  3.15433408E+00  2.16473203E-02 -2.18261553E-14 -8.68540507E-01 -1.37979956E-01
  5.69327754E-02 -6.60930869E-02  3.86952479E-16  1.74137094E-02  2.03317730E-15
  5.12098657E-01 -1.49630368E+00 -3.38033722E-04  7.71161772E-02 -4.09664339E-02
  5.12098657E-01 -1.49630368E+00 -3.38033722E-04 -7.71161772E-02 -4.09664339E-02
 -1.38500238E-16  3.31168237E-15 -1.38349996E-16  1.74523354E-02  3.58714152E-16
 -4.84104812E-15 -5.35536791E-16 -2.10632253E-04 -2.18977703E-16 -1.54953935E-15
 -3.91527529E-16  2.16261668E-15  7.24176637E-01 -2.16302276E-16 -1.41745171E-02
 -2.94605254E-02  2.01624463E-02  3.45511622E-01 -6.08750844E-03  4.14738179E-03
  2.94605254E-02 -2.01624463E-02 -3.45511622E-01 -6.08750844E-03 -4.14738179E-03
  1.55983417E-02  1.39803797E-01 -1.46718078E-02 -4.61886139E-16  4.18800843E-02
 -4.20639374E-01 -8.92619905E-03  1.22584382E-15  2.66457864E-01 -3.24603323E-01
 -4.04830197E-01  7.78469578E-01 -2.31615661E-15 -1.10713306E-01 -7.82750269E-16
  1.49611613E-01  1.12700682E-01  3.14506852E-02 -1.40998410E-01 -2.73916373E-01
  1.49611613E-01  1.12700682E-01  3.14506852E-02  1.40998410E-01 -2.73916373E-01
 -7.13951248E-03  4.49083132E-02  6.32445621E-02 -6.10114341E-17  2.11826226E-02
 -2.24264542E-02  9.68008998E-02 -1.53795287E-15  7.08142318E-03 -1.00641402E-01
 -1.54826426E-02  1.03642787E-01  1.39317557E-16  8.27903337E-01  1.33675543E-15
 -1.83052782E-02  1.67688623E-02 -2.83030998E-01 -2.53914501E-02 -2.92290399E-02
 -1.83052782E-02  1.67688623E-02 -2.83030998E-01  2.53914501E-02 -2.92290399E-02
  3.65094543E-02  2.59660581E-01  2.16389388E-02  4.21692848E-15 -8.23354545E-02
 -7.47902183E-01  5.02547074E-03 -1.41737919E-14  3.84035231E-01  9.53782118E-01
 -5.52701061E-01 -1.69643568E-01  2.07585107E-15  4.06601177E-02  1.38865770E-14
  3.98753296E-01  1.00851456E-01 -2.60333656E-02  1.10875034E-01 -2.03086046E-01
  3.98753296E-01  1.00851456E-01 -2.60333656E-02 -1.10875034E-01 -2.03086046E-01
 -1.16036171E-15 -8.94661377E-15 -7.46720490E-16  1.08501505E-01  2.24796066E-15
  2.65379937E-14 -1.13958628E-15 -5.37867315E-01 -1.25015996E-14 -2.94169694E-14
  1.74620219E-14  4.62397256E-15  4.08069615E-03  1.24169060E-15  5.40823110E-01
  4.01032970E-01  9.51393710E-03  1.33824262E-02  4.51059973E-01  2.81964191E-01
 -4.01032970E-01 -9.51393710E-03 -1.33824262E-02  4.51059973E-01 -2.81964191E-01
 -1.75462518E-16 -1.17165685E-15  2.52993527E-16  1.80506960E-01 -9.86047447E-16
  8.30829893E-15  3.38938339E-15  8.73900922E-02 -4.83787552E-15 -1.64909022E-15
 -3.30067807E-15  5.83802970E-15 -2.17265575E-02 -8.36463283E-15  6.00284443E-01
  2.43686716E-01 -2.66486464E-01  3.20024867E-02 -9.69290153E-02 -5.91993421E-01
 -2.43686716E-01  2.66486464E-01 -3.20024867E-02 -9.69290153E-02  5.91993421E-01
 -1.46068339E-03  2.32218579E-02 -8.51389172E-02 -1.24538677E-15  3.85673226E-03
 -2.85343290E-02 -2.41556627E-01  5.60712258E-16  1.43281596E-02  1.05720378E-02
 -1.35295166E-03 -1.41528628E-02 -1.12120471E-14  5.95383185E-01  1.06635570E-14
  1.97994024E-03  1.07740612E-02  7.02528096E-01 -1.03522867E-02 -1.58695803E-02
  1.97994024E-03  1.07740612E-02  7.02528096E-01  1.03522867E-02 -1.58695803E-02
 -8.84772165E-17 -2.86456457E-15 -7.37329520E-16  1.98247753E-02 -7.57510363E-16