Title Card Required                                                     
SP        UB3LYP                                                      6-31G(d,p)          
Number of atoms                            I                4
Info1-9                                    I   N=           9
          14          11           0           0           0         110
           1          18        -502
Full Title                                 C   N=           2
Title Card Required     
Route                                      C   N=           3
# b3lyp/6-31g(d,p) out=wfn          
Charge                                     I                0
Multiplicity                               I                2
Number of electrons                        I                9
Number of alpha electrons                  I                5
Number of beta electrons                   I                4
Number of basis functions                  I               30
Number of independent functions            I               30
Number of point charges in /Mol/           I                0
Number of translation vectors              I                0
Atomic numbers                             I   N=           4
           6           1           1           1
Nuclear charges                            R   N=           4
  6.00000000E+00  1.00000000E+00  1.00000000E+00  1.00000000E+00
Current cartesian coordinates              R   N=          12
  0.00000000E+00  0.00000000E+00  0.00000000E+00  0.00000000E+00  2.02200695E+00
  0.00000000E+00  1.75110939E+00 -1.01100348E+00  0.00000000E+00 -1.75110939E+00
 -1.01100348E+00  0.00000000E+00
Number of symbols in /Mol/                 I                0
Force Field                                I                0
Atom Types                                 C   N=           4
                                                
Int Atom Types                             I   N=           4
           0           0           0           0
MM charges                                 R   N=           4
  0.00000000E+00  0.00000000E+00  0.00000000E+00  0.00000000E+00
Integer atomic weights                     I   N=           4
          12           1           1           1
Real atomic weights                        R   N=           4
  1.20000000E+01  1.00782504E+00  1.00782504E+00  1.00782504E+00
Atom fragment info                         I   N=           4
           0           0           0           0
Atom residue num                           I   N=           4
           0           0           0           0
Nuclear spins                              I   N=           4
           0           1           1           1
Nuclear ZEff                               R   N=           4
 -3.60000000E+00 -1.00000000E+00 -1.00000000E+00 -1.00000000E+00
Nuclear ZNuc                               R   N=           4
  6.00000000E+00  1.00000000E+00  1.00000000E+00  1.00000000E+00
Nuclear QMom                               R   N=           4
  0.00000000E+00  0.00000000E+00  0.00000000E+00  0.00000000E+00
Nuclear GFac                               R   N=           4
  0.00000000E+00  2.79284600E+00  2.79284600E+00  2.79284600E+00
MicOpt                                     I   N=           4
          -1          -1          -1          -1
Number of residues                         I                0
Number of secondary structures             I                0
SymInf integers                            I   N=          26
           2           4           1           1           1          -1
           1          -1          -1           1           1           1
           1          -1           0           0           0           0
           0           0           0           0           0           0
           0           0
RotTr to input orientation                 R   N=          12
 -1.00000000E+00  9.57639523E-10 -1.22464680E-16  9.57639523E-10  1.00000000E+00
  0.00000000E+00  1.22464680E-16 -1.17277018E-25 -1.00000000E+00  0.00000000E+00
 -9.86864911E-17  0.00000000E+00
Number of contracted shells                I               13
Number of primitive shells                 I               26
Pure/Cartesian d shells                    I                1
Pure/Cartesian f shells                    I                0
Highest angular momentum                   I                2
Largest degree of contraction              I                6
Shell types                                I   N=          13
           0          -1          -1           2           0           0
           1           0           0           1           0           0
           1
Number of primitives per shell             I   N=          13
           6           3           1           1           3           1
           1           3           1           1           3           1
           1
Shell to atom map                          I   N=          13
           1           1           1           1           2           2
           2           3           3           3           4           4
           4
Primitive exponents                        R   N=          26
  3.04752488E+03  4.57369518E+02  1.03948685E+02  2.92101553E+01  9.28666296E+00
  3.16392696E+00  7.86827235E+00  1.88128854E+00  5.44249258E-01  1.68714478E-01
  8.00000000E-01  1.87311370E+01  2.82539436E+00  6.40121692E-01  1.61277759E-01
  1.10000000E+00  1.87311370E+01  2.82539436E+00  6.40121692E-01  1.61277759E-01
  1.10000000E+00  1.87311370E+01  2.82539436E+00  6.40121692E-01  1.61277759E-01
  1.10000000E+00
Contraction coefficients                   R   N=          26
  1.83473713E-03  1.40373228E-02  6.88426223E-02  2.32184443E-01  4.67941348E-01
  3.62311985E-01 -1.19332420E-01 -1.60854152E-01  1.14345644E+00  1.00000000E+00
  1.00000000E+00  3.34946043E-02  2.34726953E-01  8.13757326E-01  1.00000000E+00
  1.00000000E+00  3.34946043E-02  2.34726953E-01  8.13757326E-01  1.00000000E+00
  1.00000000E+00  3.34946043E-02  2.34726953E-01  8.13757326E-01  1.00000000E+00
  1.00000000E+00
P(S=P) Contraction coefficients            R   N=          26
  0.00000000E+00  0.00000000E+00  0.00000000E+00  0.00000000E+00  0.00000000E+00
  0.00000000E+00  6.89990666E-02  3.16423961E-01  7.44308291E-01  1.00000000E+00
  0.00000000E+00  0.00000000E+00  0.00000000E+00  0.00000000E+00  0.00000000E+00
  0.00000000E+00  0.00000000E+00  0.00000000E+00  0.00000000E+00  0.00000000E+00
  0.00000000E+00  0.00000000E+00  0.00000000E+00  0.00000000E+00  0.00000000E+00
  0.00000000E+00
Coordinates of each shell                  R   N=          39
  0.00000000E+00  0.00000000E+00  0.00000000E+00  0.00000000E+00  0.00000000E+00
  0.00000000E+00  0.00000000E+00  0.00000000E+00  0.00000000E+00  0.00000000E+00
  0.00000000E+00  0.00000000E+00  0.00000000E+00  2.02200695E+00  0.00000000E+00
  0.00000000E+00  2.02200695E+00  0.00000000E+00  0.00000000E+00  2.02200695E+00
  0.00000000E+00  1.75110939E+00 -1.01100348E+00  9.78763096E-34  1.75110939E+00
 -1.01100348E+00  9.78763096E-34  1.75110939E+00 -1.01100348E+00  9.78763096E-34
 -1.75110939E+00 -1.01100348E+00  9.78763004E-34 -1.75110939E+00 -1.01100348E+00
  9.78763004E-34 -1.75110939E+00 -1.01100348E+00  9.78763004E-34
Num ILSW                                   I              100
ILSW                                       I   N=         100
           1           1           0           0           2           0
           0           0           0           0         402          -1
           5           0           0           0           0           0
           0           0           1           0           0           0
           1           0           0           0           0           0
           0           0      100000           0          -1           0
           0           0           0           0           0           0
           0           0           0           1           0           0
           0 -2000000000           1           0           0           0
           0           0           4          52           0           0
           0           0           5           0           0           0
           0           0           0           0           0           1
           0           0           0           0           0           0
           0           0           0           0           0           0
           0           0           0           0           0           0
           0           0           0           0           0           0
           0           0           0           0
Num RLSW                                   I               52
RLSW                                       R   N=          52
  8.00000000E-01  7.20000000E-01  1.00000000E+00  8.10000000E-01  2.00000000E-01
  0.00000000E+00  0.00000000E+00  1.00000000E+00  0.00000000E+00  0.00000000E+00
  0.00000000E+00  0.00000000E+00  1.00000000E+00  0.00000000E+00  0.00000000E+00
  0.00000000E+00  0.00000000E+00  1.00000000E+00  0.00000000E+00  0.00000000E+00
  0.00000000E+00  0.00000000E+00  1.00000000E+00  0.00000000E+00  0.00000000E+00
  0.00000000E+00  0.00000000E+00  1.00000000E+00  0.00000000E+00  0.00000000E+00
  0.00000000E+00  0.00000000E+00  1.00000000E+00  0.00000000E+00  0.00000000E+00
  0.00000000E+00  0.00000000E+00  0.00000000E+00  1.00000000E+00  1.00000000E+00
  0.00000000E+00  1.00000000E+00  0.00000000E+00  0.00000000E+00  0.00000000E+00
  0.00000000E+00  0.00000000E+00  0.00000000E+00  0.00000000E+00  0.00000000E+00
  0.00000000E+00  0.00000000E+00
MxBond                                     I                3
NBond                                      I   N=           4
           3           1           1           1
IBond                                      I   N=          12
           2           3           4           1           0           0
           1           0           0           1           0           0
RBond                                      R   N=          12
  1.00000000E+00  1.00000000E+00  1.00000000E+00  1.00000000E+00  0.00000000E+00
  0.00000000E+00  1.00000000E+00  0.00000000E+00  0.00000000E+00  1.00000000E+00
  0.00000000E+00  0.00000000E+00
Virial Ratio                               R      2.008911277385247E+00
SCF Energy                                 R     -3.984258801636963E+01
Total Energy                               R     -3.984258801636963E+01
S**2                                       R      7.534908939650387E-01
S**2 after annihilation                    R      7.500061293647178E-01
RMS Density                                R      6.644936194270057E-09
Job Status                                 I                1
Nuclear derivative order                   I                0
External E-field                           R   N=          35
  0.00000000E+00  0.00000000E+00  0.00000000E+00  0.00000000E+00  0.00000000E+00
  0.00000000E+00  0.00000000E+00  0.00000000E+00  0.00000000E+00  0.00000000E+00
  0.00000000E+00  0.00000000E+00  0.00000000E+00  0.00000000E+00  0.00000000E+00
  0.00000000E+00  0.00000000E+00  0.00000000E+00  0.00000000E+00  0.00000000E+00
  0.00000000E+00  0.00000000E+00  0.00000000E+00  0.00000000E+00  0.00000000E+00
  0.00000000E+00  0.00000000E+00  0.00000000E+00  0.00000000E+00  0.00000000E+00
  0.00000000E+00  0.00000000E+00  0.00000000E+00  0.00000000E+00  0.00000000E+00
IOpCl                                      I                1
IROHF                                      I                0
Alpha Orbital Energies                     R   N=          30
 -1.01884160E+01 -6.84051688E-01 -4.17833764E-01 -4.17833764E-01 -2.24551475E-01
  1.19389709E-01  1.85516107E-01  1.85516107E-01  5.35951550E-01  5.35951550E-01
  5.37185565E-01  6.81886841E-01  8.97771005E-01  8.97771005E-01  9.52649005E-01
  1.43519157E+00  1.43519157E+00  1.92622445E+00  1.92622445E+00  1.97602171E+00
  2.00907442E+00  2.28717507E+00  2.57565312E+00  2.57565312E+00  2.74315224E+00
  2.74315224E+00  3.28192103E+00  3.48818760E+00  3.48818760E+00  4.27195390E+00
Beta Orbital Energies                      R   N=          30
 -1.01744722E+01 -6.43203863E-01 -4.07661636E-01 -4.07661636E-01 -4.98954103E-02
  1.35210397E-01  1.90790192E-01  1.90790192E-01  5.43585424E-01  5.43585424E-01
  6.14337178E-01  7.08329571E-01  9.01425323E-01  9.01425323E-01  9.80780419E-01
  1.48173938E+00  1.48173938E+00  1.92972990E+00  1.92972990E+00  2.00413185E+00
  2.05744265E+00  2.29430527E+00  2.60553313E+00  2.60553313E+00  2.74369131E+00
  2.74369131E+00  3.28790204E+00  3.49602772E+00  3.49602772E+00  4.30849811E+00
Alpha MO coefficients                      R   N=         900
  9.92455669E-01  5.05066485E-02  0.00000000E+00 -6.81519057E-16  0.00000000E+00
 -1.07545093E-02  0.00000000E+00 -7.72314896E-16  0.00000000E+00 -1.00793074E-02
 -1.00793074E-02 -9.88802099E-03  0.00000000E+00  0.00000000E+00  0.00000000E+00
 -3.77541339E-04  2.16238265E-03  0.00000000E+00  9.40018013E-05  0.00000000E+00
 -3.77541339E-04  2.16238265E-03  8.14079479E-05 -4.70009006E-05  0.00000000E+00
 -3.77541339E-04  2.16238265E-03 -8.14079479E-05 -4.70009006E-05  0.00000000E+00
 -2.06434284E-01  4.08981554E-01  0.00000000E+00 -4.84300283E-16  0.00000000E+00
  3.80931535E-01  0.00000000E+00  8.72833384E-15  0.00000000E+00 -9.92064644E-03
 -9.92064644E-03 -8.76646181E-03  0.00000000E+00  0.00000000E+00  0.00000000E+00
  1.50286194E-01  4.74779859E-02  0.00000000E+00 -1.38201930E-02  0.00000000E+00
  1.50286194E-01  4.74779859E-02 -1.19686382E-02  6.91009651E-03  0.00000000E+00
  1.50286194E-01  4.74779859E-02  1.19686382E-02  6.91009651E-03  0.00000000E+00
  3.34487379E-16 -4.64858990E-15  0.00000000E+00  4.57705270E-01  0.00000000E+00
  2.46451001E-15  0.00000000E+00  1.82065934E-01  0.00000000E+00 -1.83248051E-02
  1.83248051E-02  9.44640634E-16  0.00000000E+00  0.00000000E+00  0.00000000E+00
  2.80873616E-01  2.27906980E-01  0.00000000E+00 -7.62079624E-03  0.00000000E+00
 -1.40436808E-01 -1.13953490E-01  6.73805468E-03  4.04985682E-03  0.00000000E+00
 -1.40436808E-01 -1.13953490E-01 -6.73805468E-03  4.04985682E-03  0.00000000E+00
  0.00000000E+00  0.00000000E+00  4.57705270E-01  0.00000000E+00  0.00000000E+00
  0.00000000E+00  1.82065934E-01  0.00000000E+00  0.00000000E+00  0.00000000E+00
  0.00000000E+00  0.00000000E+00 -2.11596623E-02  0.00000000E+00  0.00000000E+00
  0.00000000E+00  0.00000000E+00  7.94007450E-03  0.00000000E+00  0.00000000E+00
  2.43243686E-01  1.97373235E-01 -3.73057855E-03  6.73805468E-03  0.00000000E+00
 -2.43243686E-01 -1.97373235E-01 -3.73057855E-03 -6.73805468E-03  0.00000000E+00
  0.00000000E+00  0.00000000E+00  0.00000000E+00  0.00000000E+00  5.99184428E-01
  0.00000000E+00  0.00000000E+00  0.00000000E+00  5.18384012E-01  0.00000000E+00
  0.00000000E+00  0.00000000E+00  0.00000000E+00  0.00000000E+00 -1.22745519E-17
  0.00000000E+00  0.00000000E+00  0.00000000E+00  0.00000000E+00  1.43684725E-02
  0.00000000E+00  0.00000000E+00  0.00000000E+00  0.00000000E+00  1.43684725E-02
  0.00000000E+00  0.00000000E+00  0.00000000E+00  0.00000000E+00  1.43684725E-02
 -1.52235125E-01  2.40647147E-01  0.00000000E+00  2.11769032E-14  0.00000000E+00
  2.24819577E+00  0.00000000E+00  1.21706389E-13  0.00000000E+00 -2.12674054E-02
 -2.12674054E-02  1.75195990E-03  0.00000000E+00  0.00000000E+00  0.00000000E+00
 -6.64518093E-02 -1.11000865E+00  0.00000000E+00 -6.49716972E-03  0.00000000E+00
 -6.64518093E-02 -1.11000865E+00 -5.62671403E-03  3.24858486E-03  0.00000000E+00
 -6.64518093E-02 -1.11000865E+00  5.62671403E-03  3.24858486E-03  0.00000000E+00
  0.00000000E+00  0.00000000E+00 -3.96067075E-01  0.00000000E+00  0.00000000E+00
  0.00000000E+00 -1.45550011E+00  0.00000000E+00  0.00000000E+00  0.00000000E+00
  0.00000000E+00  0.00000000E+00 -1.83026208E-02  0.00000000E+00  0.00000000E+00
  0.00000000E+00  0.00000000E+00 -1.62631779E-02  0.00000000E+00  0.00000000E+00
  7.46927244E-02  1.65779455E+00 -1.17018956E-03 -8.71394085E-03  0.00000000E+00
 -7.46927244E-02 -1.65779455E+00 -1.17018956E-03  8.71394085E-03  0.00000000E+00
 -9.51968141E-15 -2.41191469E-14  0.00000000E+00 -3.96067075E-01  0.00000000E+00
  2.11264115E-13  0.00000000E+00 -1.45550011E+00  0.00000000E+00 -1.58505346E-02
  1.58505346E-02  8.94007170E-15  0.00000000E+00  0.00000000E+00  0.00000000E+00
  8.62477290E-02  1.91425626E+00  0.00000000E+00  3.86080654E-03  0.00000000E+00
 -4.31238645E-02 -9.57128128E-01 -8.71394085E-03 -1.12321818E-02  0.00000000E+00
 -4.31238645E-02 -9.57128128E-01  8.71394085E-03 -1.12321818E-02  0.00000000E+00
  0.00000000E+00  0.00000000E+00 -7.24806050E-01  0.00000000E+00  0.00000000E+00
  0.00000000E+00  1.70751401E+00  0.00000000E+00  0.00000000E+00  0.00000000E+00
  0.00000000E+00  0.00000000E+00  7.94781336E-02  0.00000000E+00  0.00000000E+00
  0.00000000E+00  0.00000000E+00  3.79241247E-02  0.00000000E+00  0.00000000E+00
 -3.95173075E-01 -4.45053163E-01  3.96006032E-02 -9.67915333E-04  0.00000000E+00
  3.95173075E-01  4.45053163E-01  3.96006032E-02  9.67915333E-04  0.00000000E+00
  8.58750155E-16  3.63446564E-14  0.00000000E+00 -7.24806050E-01  0.00000000E+00
 -7.26678251E-14  0.00000000E+00  1.70751401E+00  0.00000000E+00  6.88300827E-02
 -6.88300827E-02 -3.62225718E-15  0.00000000E+00  0.00000000E+00  0.00000000E+00
 -4.56306563E-01 -5.13903127E-01  0.00000000E+00  4.01594294E-02  0.00000000E+00
  2.28153281E-01  2.56951563E-01 -9.67915333E-04  3.84829508E-02  0.00000000E+00
  2.28153281E-01  2.56951563E-01  9.67915333E-04  3.84829508E-02  0.00000000E+00
  0.00000000E+00  0.00000000E+00  0.00000000E+00  0.00000000E+00 -1.05410733E+00
  0.00000000E+00  0.00000000E+00  0.00000000E+00  1.10469810E+00  0.00000000E+00
  0.00000000E+00  0.00000000E+00  0.00000000E+00  0.00000000E+00  8.26623263E-16
  0.00000000E+00  0.00000000E+00  0.00000000E+00  0.00000000E+00 -1.43453913E-02
  0.00000000E+00  0.00000000E+00  0.00000000E+00  0.00000000E+00 -1.43453913E-02
  0.00000000E+00  0.00000000E+00  0.00000000E+00  0.00000000E+00 -1.43453913E-02
 -7.65125515E-02 -7.09169813E-01  0.00000000E+00 -5.27534440E-15  0.00000000E+00
  1.75072095E+00  0.00000000E+00  2.99553276E-14  0.00000000E+00 -1.91396842E-01
 -1.91396842E-01  1.10831915E-01  0.00000000E+00  0.00000000E+00  0.00000000E+00
 -5.82502204E-01 -3.63952265E-02  0.00000000E+00 -3.71502422E-02  0.00000000E+00
 -5.82502204E-01 -3.63952265E-02 -3.21730535E-02  1.85751211E-02  0.00000000E+00
 -5.82502204E-01 -3.63952265E-02  3.21730535E-02  1.85751211E-02  0.00000000E+00
  0.00000000E+00  0.00000000E+00  7.73712677E-01  0.00000000E+00  0.00000000E+00
  0.00000000E+00 -1.34277546E+00  0.00000000E+00  0.00000000E+00  0.00000000E+00
  0.00000000E+00  0.00000000E+00  2.63409983E-01  0.00000000E+00  0.00000000E+00
  0.00000000E+00  0.00000000E+00  6.27239022E-02  0.00000000E+00  0.00000000E+00
 -6.98039484E-01  1.48697831E+00 -7.09847419E-02  7.71967217E-02  0.00000000E+00
  6.98039484E-01 -1.48697831E+00 -7.09847419E-02 -7.71967217E-02  0.00000000E+00
  5.78638836E-15 -2.77419714E-13  0.00000000E+00  7.73712677E-01  0.00000000E+00
  5.68031149E-13  0.00000000E+00 -1.34277546E+00  0.00000000E+00  2.28119737E-01
 -2.28119737E-01 -1.45292184E-14  0.00000000E+00  0.00000000E+00  0.00000000E+00
 -8.06026568E-01  1.71701465E+00  0.00000000E+00 -1.15554290E-01  0.00000000E+00
  4.03013284E-01 -8.58507327E-01  7.71967217E-02  1.81543542E-02  0.00000000E+00
  4.03013284E-01 -8.58507327E-01 -7.71967217E-02  1.81543542E-02  0.00000000E+00
  2.00371015E-02 -1.78485255E+00  0.00000000E+00 -1.28706767E-13  0.00000000E+00
  3.89536128E+00  0.00000000E+00  2.39630970E-13  0.00000000E+00  4.42446148E-03
  4.42446148E-03 -1.55558675E-01  0.00000000E+00  0.00000000E+00  0.00000000E+00
  3.47737289E-01 -1.23246750E+00  0.00000000E+00  7.44215941E-02  0.00000000E+00
  3.47737289E-01 -1.23246750E+00  6.44509911E-02 -3.72107971E-02  0.00000000E+00
  3.47737289E-01 -1.23246750E+00 -6.44509911E-02 -3.72107971E-02  0.00000000E+00
  0.00000000E+00  0.00000000E+00  0.00000000E+00  0.00000000E+00  0.00000000E+00
  0.00000000E+00  0.00000000E+00  0.00000000E+00  0.00000000E+00  0.00000000E+00
  0.00000000E+00  0.00000000E+00  0.00000000E+00  7.25527965E-01  0.00000000E+00
  0.00000000E+00  0.00000000E+00  0.00000000E+00  0.00000000E+00  0.00000000E+00
  0.00000000E+00  0.00000000E+00  0.00000000E+00  0.00000000E+00  3.31317475E-01
  0.00000000E+00  0.00000000E+00  0.00000000E+00  0.00000000E+00 -3.31317475E-01
  0.00000000E+00  0.00000000E+00  0.00000000E+00  0.00000000E+00  2.68968208E-15
  0.00000000E+00  0.00000000E+00  0.00000000E+00 -1.95823534E-15  0.00000000E+00
  0.00000000E+00  0.00000000E+00  0.00000000E+00  0.00000000E+00  7.25527965E-01
  0.00000000E+00  0.00000000E+00  0.00000000E+00  0.00000000E+00  3.82572467E-01
  0.00000000E+00  0.00000000E+00  0.00000000E+00  0.00000000E+00 -1.91286234E-01
  0.00000000E+00  0.00000000E+00  0.00000000E+00  0.00000000E+00 -1.91286234E-01
  0.00000000E+00  0.00000000E+00 -4.22669694E-02  0.00000000E+00  0.00000000E+00
  0.00000000E+00  7.90148491E-01  0.00000000E+00  0.00000000E+00  0.00000000E+00
  0.00000000E+00  0.00000000E+00 -6.36332083E-01  0.00000000E+00  0.00000000E+00
  0.00000000E+00  0.00000000E+00 -4.33352459E-01  0.00000000E+00  0.00000000E+00
 -5.17662493E-01 -1.36760152E-01 -2.84885085E-01 -8.57176783E-02  0.00000000E+00
  5.17662493E-01  1.36760152E-01 -2.84885085E-01  8.57176783E-02  0.00000000E+00
  1.15858771E-15  1.24923731E-14  0.00000000E+00 -4.22669694E-02  0.00000000E+00
 -2.76176679E-14  0.00000000E+00  7.90148491E-01  0.00000000E+00 -5.51079749E-01
  5.51079749E-01  4.25353719E-14  0.00000000E+00  0.00000000E+00  0.00000000E+00
 -5.97745159E-01 -1.57917021E-01  0.00000000E+00 -2.35395960E-01  0.00000000E+00
  2.98872580E-01  7.89585105E-02 -8.57176783E-02 -3.83863334E-01  0.00000000E+00
  2.98872580E-01  7.89585105E-02  8.57176783E-02 -3.83863334E-01  0.00000000E+00
  5.32026914E-02  2.35332701E-01  0.00000000E+00  5.10158356E-15  0.00000000E+00
 -8.51434134E-01  0.00000000E+00 -3.82986118E-14  0.00000000E+00 -3.70717238E-01
 -3.70717238E-01  1.03984453E+00  0.00000000E+00  0.00000000E+00  0.00000000E+00
  3.43122651E-01  5.86402974E-02  0.00000000E+00  1.61865378E-01  0.00000000E+00
  3.43122651E-01  5.86402974E-02  1.40179529E-01 -8.09326889E-02  0.00000000E+00
  3.43122651E-01  5.86402974E-02 -1.40179529E-01 -8.09326889E-02  0.00000000E+00
  0.00000000E+00  0.00000000E+00  7.66346419E-16  0.00000000E+00  0.00000000E+00
  0.00000000E+00 -1.46564771E-14  0.00000000E+00  0.00000000E+00  0.00000000E+00
  0.00000000E+00  0.00000000E+00  1.77791201E-14  0.00000000E+00  0.00000000E+00
  0.00000000E+00  0.00000000E+00  5.79996926E-01  0.00000000E+00  0.00000000E+00
  1.49851455E-14 -1.56228114E-15 -2.89998463E-01 -5.02292072E-01  0.00000000E+00
 -1.49851455E-14  1.56228114E-15 -2.89998463E-01  5.02292072E-01  0.00000000E+00
  0.00000000E+00  0.00000000E+00  0.00000000E+00  0.00000000E+00 -1.56095816E-01
  0.00000000E+00  0.00000000E+00  0.00000000E+00 -3.09108275E-01  0.00000000E+00
  0.00000000E+00  0.00000000E+00  0.00000000E+00  0.00000000E+00  6.44719949E-15
  0.00000000E+00  0.00000000E+00  0.00000000E+00  0.00000000E+00  6.21073173E-01
  0.00000000E+00  0.00000000E+00  0.00000000E+00  0.00000000E+00  6.21073173E-01
  0.00000000E+00  0.00000000E+00  0.00000000E+00  0.00000000E+00  6.21073173E-01
  0.00000000E+00  0.00000000E+00  0.00000000E+00  0.00000000E+00  1.00041553E-15
  0.00000000E+00  0.00000000E+00  0.00000000E+00  8.50292456E-16  0.00000000E+00
  0.00000000E+00  0.00000000E+00  0.00000000E+00  0.00000000E+00  7.97821327E-01
  0.00000000E+00  0.00000000E+00  0.00000000E+00  0.00000000E+00 -7.93614429E-01
  0.00000000E+00  0.00000000E+00  0.00000000E+00  0.00000000E+00  3.96807214E-01
  0.00000000E+00  0.00000000E+00  0.00000000E+00  0.00000000E+00  3.96807214E-01
  0.00000000E+00  0.00000000E+00  0.00000000E+00  0.00000000E+00  0.00000000E+00
  0.00000000E+00  0.00000000E+00  0.00000000E+00  0.00000000E+00  0.00000000E+00
  0.00000000E+00  0.00000000E+00  0.00000000E+00  7.97821327E-01  0.00000000E+00
  0.00000000E+00  0.00000000E+00  0.00000000E+00  0.00000000E+00  0.00000000E+00
  0.00000000E+00  0.00000000E+00  0.00000000E+00  0.00000000E+00 -6.87290256E-01
  0.00000000E+00  0.00000000E+00  0.00000000E+00  0.00000000E+00  6.87290256E-01
  0.00000000E+00  0.00000000E+00 -3.77527825E-01  0.00000000E+00  0.00000000E+00
  0.00000000E+00 -5.97191117E-01  0.00000000E+00  0.00000000E+00  0.00000000E+00
  0.00000000E+00  0.00000000E+00 -4.28837692E-01  0.00000000E+00  0.00000000E+00
  0.00000000E+00  0.00000000E+00  7.73155531E-01  0.00000000E+00  0.00000000E+00
 -1.08029799E-02  5.44679319E-01 -1.52333359E-01  5.34331260E-01  0.00000000E+00
  1.08029799E-02 -5.44679319E-01 -1.52333359E-01 -5.34331260E-01  0.00000000E+00
  5.57156267E-16  1.54854956E-14  0.00000000E+00 -3.77527825E-01  0.00000000E+00
 -4.47145496E-14  0.00000000E+00 -5.97191117E-01  0.00000000E+00 -3.71384335E-01
  3.71384335E-01  1.77453317E-15  0.00000000E+00  0.00000000E+00  0.00000000E+00
 -1.24742067E-02  6.28941503E-01  0.00000000E+00 -4.60829656E-01  0.00000000E+00
  6.23710333E-03 -3.14470752E-01  5.34331260E-01  4.64659234E-01  0.00000000E+00
  6.23710333E-03 -3.14470752E-01 -5.34331260E-01  4.64659234E-01  0.00000000E+00
 -1.51669571E-01  1.10133396E+00  0.00000000E+00  6.44840828E-15  0.00000000E+00
  1.25958917E+00  0.00000000E+00 -4.84885227E-15  0.00000000E+00  1.99877844E-01
  1.99877844E-01 -9.35072371E-01  0.00000000E+00  0.00000000E+00  0.00000000E+00
 -4.13050612E-01 -4.15837241E-01  0.00000000E+00  7.81268596E-01  0.00000000E+00
 -4.13050612E-01 -4.15837241E-01  6.76598452E-01 -3.90634298E-01  0.00000000E+00
 -4.13050612E-01 -4.15837241E-01 -6.76598452E-01 -3.90634298E-01  0.00000000E+00
  0.00000000E+00  0.00000000E+00 -9.88843741E-01  0.00000000E+00  0.00000000E+00
  0.00000000E+00 -3.59880180E-01  0.00000000E+00  0.00000000E+00  0.00000000E+00
  0.00000000E+00  0.00000000E+00  1.24379596E+00  0.00000000E+00  0.00000000E+00
  0.00000000E+00  0.00000000E+00 -3.08862452E-01  0.00000000E+00  0.00000000E+00
  7.12980702E-01  3.19325723E-01 -9.05544453E-01  3.44494514E-01  0.00000000E+00
 -7.12980702E-01 -3.19325723E-01 -9.05544453E-01 -3.44494514E-01  0.00000000E+00
 -3.78319672E-15  8.72674630E-15  0.00000000E+00  9.88843741E-01  0.00000000E+00
  3.05913704E-14  0.00000000E+00  3.59880180E-01  0.00000000E+00 -1.07715890E+00
  1.07715890E+00 -1.08664466E-14  0.00000000E+00  0.00000000E+00  0.00000000E+00
 -8.23279201E-01 -3.68725584E-01  0.00000000E+00  1.10443845E+00  0.00000000E+00
  4.11639601E-01  1.84362792E-01 -3.44494514E-01  5.07756453E-01  0.00000000E+00
  4.11639601E-01  1.84362792E-01  3.44494514E-01  5.07756453E-01  0.00000000E+00
 -4.48972224E-01  2.87930254E+00  0.00000000E+00 -3.86034250E-15  0.00000000E+00
  1.41881320E+00  0.00000000E+00 -2.37404851E-14  0.00000000E+00 -2.16888624E+00
 -2.16888624E+00 -1.58574286E+00  0.00000000E+00  0.00000000E+00  0.00000000E+00
  3.95191270E-01 -2.92367807E-01  0.00000000E+00 -3.92424169E-01  0.00000000E+00
  3.95191270E-01 -2.92367807E-01 -3.39849300E-01  1.96212085E-01  0.00000000E+00
  3.95191270E-01 -2.92367807E-01  3.39849300E-01  1.96212085E-01  0.00000000E+00
Beta MO coefficients                       R   N=         900
  9.93016513E-01  4.68922565E-02  0.00000000E+00 -5.16530637E-16  0.00000000E+00
 -1.06594343E-02  0.00000000E+00 -8.57631170E-16  0.00000000E+00 -8.28547152E-03
 -8.28547152E-03 -9.69055922E-03  0.00000000E+00  0.00000000E+00  0.00000000E+00
 -5.99421071E-04  2.13292484E-03  0.00000000E+00  2.53296157E-04  0.00000000E+00
 -5.99421071E-04  2.13292484E-03  2.19360907E-04 -1.26648078E-04  0.00000000E+00
 -5.99421071E-04  2.13292484E-03 -2.19360907E-04 -1.26648078E-04  0.00000000E+00
 -1.98448205E-01  3.89017763E-01  0.00000000E+00 -8.25636262E-16  0.00000000E+00
  3.19427244E-01  0.00000000E+00  6.63607172E-15  0.00000000E+00  2.44564813E-03
  2.44564813E-03 -3.17867311E-02  0.00000000E+00  0.00000000E+00  0.00000000E+00
  1.63870717E-01  7.40201374E-02  0.00000000E+00 -1.31342521E-02  0.00000000E+00
  1.63870717E-01  7.40201374E-02 -1.13745960E-02  6.56712606E-03  0.00000000E+00
  1.63870717E-01  7.40201374E-02  1.13745960E-02  6.56712606E-03  0.00000000E+00
  7.00947108E-17 -3.70861128E-15  0.00000000E+00  4.39953991E-01  0.00000000E+00
  3.56708714E-15  0.00000000E+00  1.61643047E-01  0.00000000E+00 -1.73688889E-02
  1.73688889E-02  8.84136929E-16  0.00000000E+00  0.00000000E+00  0.00000000E+00
  2.93175476E-01  2.52605551E-01  0.00000000E+00 -8.66075405E-03  0.00000000E+00
 -1.46587738E-01 -1.26302775E-01  7.51152969E-03  4.34959702E-03  0.00000000E+00
 -1.46587738E-01 -1.26302775E-01 -7.51152969E-03  4.34959702E-03  0.00000000E+00
  0.00000000E+00  0.00000000E+00  4.39953991E-01  0.00000000E+00  0.00000000E+00
  0.00000000E+00  1.61643047E-01  0.00000000E+00  0.00000000E+00  0.00000000E+00
  0.00000000E+00  0.00000000E+00 -2.00558654E-02  0.00000000E+00  0.00000000E+00
  0.00000000E+00  0.00000000E+00  8.68638070E-03  0.00000000E+00  0.00000000E+00
  2.53897410E-01  2.18762824E-01 -4.32397036E-03  7.51152969E-03  0.00000000E+00
 -2.53897410E-01 -2.18762824E-01 -4.32397036E-03 -7.51152969E-03  0.00000000E+00
  0.00000000E+00  0.00000000E+00  0.00000000E+00  0.00000000E+00  5.01001040E-01
  0.00000000E+00  0.00000000E+00  0.00000000E+00  6.12319044E-01  0.00000000E+00
  0.00000000E+00  0.00000000E+00  0.00000000E+00  0.00000000E+00  2.52528423E-17
  0.00000000E+00  0.00000000E+00  0.00000000E+00  0.00000000E+00  1.86939398E-02
  0.00000000E+00  0.00000000E+00  0.00000000E+00  0.00000000E+00  1.86939398E-02
  0.00000000E+00  0.00000000E+00  0.00000000E+00  0.00000000E+00  1.86939398E-02
 -1.57876960E-01  2.36938160E-01  0.00000000E+00  3.16767125E-14  0.00000000E+00
  2.30130307E+00  0.00000000E+00  1.64896293E-13  0.00000000E+00 -7.98761210E-03
 -7.98761210E-03 -2.38766317E-02  0.00000000E+00  0.00000000E+00  0.00000000E+00